144
Lattice="12.678213 0.0 0.0 0.0 12.678213 0.0 0.0 0.0 12.678213" Properties=species:S:1:pos:R:3:indices:I:1:QM_forces:R:3:delta_iso:R:1 spacegroup="P 1" magres_units="_JSON {\"ms\": \"ppm\", \"efg\": \"au\"}" magresblock_calculation="_JSON {\"calc_code\": [[\"CASTEP\"]], \"calc_code_version\": [[\"23.1\"]], \"calc_code_hgversion\": [[\"cd65858e9\", \"Castep231_branch\", \"Tue\", \"May\", \"16\", \"11:24:16\", \"2023\", \"+0100\"]], \"calc_code_platform\": [[\"linux_x86_64_gfortran10-XT\"]], \"calc_name\": [[\"sio2\"]], \"calc_comment\": [[\"NMR\"]], \"calc_xcfunctional\": [[\"PBE\"]], \"calc_cutoffenergy\": [[\"900.00000000\", \"eV\"]], \"calc_pspot\": [[\"O\", \"2|1.1|17|20|23|20:21(qc=8)\"], [\"Si\", \"3|1.8|5|6|7|30:31:32\"]], \"calc_kpoint_mp_grid\": [[\"3\", \"3\", \"3\"]], \"calc_kpoint_mp_offset\": [[\"0.25000000\", \"0.25000000\", \"0.25000000\"]]}" QM_energy=-50557.04169 pbc="T T T"
O       10.72280000       1.88643000       8.91635000        1      -0.63488000      -0.42436000      -0.66819000     226.80563252
O        1.50088000       9.42329000       5.43493000        2      -0.47850000       0.44574000       0.26116000     202.12937190
O        8.35444000       5.34229000       8.25450000        3      -0.58848000      -0.15924000       1.58042000     219.34677735
O        3.83198000       4.26284000      11.45360000        4       0.69181000       1.43150000       0.29570000     218.83695091
O        0.27125400       3.27690000       0.54358200        5      -1.22307000       1.66796000      -0.52622000     219.72097705
O        6.63811000      10.02370000      11.97280000        6       0.29623000       0.00163000      -0.27681000     223.46324048
O        8.61741000       5.30148000       0.63329600        7       0.95603000       0.01930000       0.30179000     204.06106736
O        7.97364000       0.23072900       5.82633000        8      -1.79351000       2.82726000      -1.17276000     215.20540433
O        4.61254000       9.55443000       6.05708000        9      -0.71938000       1.21086000      -1.25474000     203.21159020
O        6.57057000       3.54598000       8.97763000       10      -0.41412000      -1.29385000       0.13023000     215.35057241
O        1.78031000       2.40324000       7.89677000       11       0.44339000       0.48495000      -1.51733000     206.51830561
O        1.50973000       4.91093000      10.33080000       12      -0.07397000       0.18274000       0.07298000     203.73744921
O        0.10189700       6.93716000       9.15880000       13      -0.09375000      -0.05741000       0.22094000     198.48165375
O        1.81485000       6.29338000       2.82925000       14       1.40466000       0.27247000      -0.60672000     212.20224076
O        6.04241000      10.78410000       4.04379000       15       0.70967000      -0.24792000      -0.50315000     212.82188458
O        9.72366000      11.03380000       5.48126000       16      -0.40571000      -1.54194000       0.09237000     198.32839111
O        3.89680000       6.75250000       6.25361000       17      -0.20887000       0.17784000      -0.55033000     212.53086606
O        8.11141000       1.48518000       8.70638000       18      -1.48153000       0.59544000      -0.16254000     214.68029306
O        7.93986000      11.90480000       2.44565000       19      -0.18677000       0.54470000      -0.09319000     210.30157131
O        6.52496000       2.05148000       4.07398000       20       0.23994000      -1.00045000       0.26445000     206.41988801
O        2.35680000       6.32163000      12.39140000       21       0.99245000      -3.34603000      -1.40267000     214.32469717
O        9.52977000       5.22032000       5.80855000       22      -0.11544000       0.16877000       0.92952000     223.69173581
O        2.02456000       8.89173000      11.50150000       23      -0.18620000      -0.87266000       0.37119000     215.17004798
O        0.66783500       4.16293000       3.78425000       24      -0.47219000      -0.68487000      -0.13990000     219.46884601
O        3.06062000       2.17321000      10.19470000       25       0.01227000      -0.99356000      -1.58099000     218.60187121
O        7.26656000       7.41779000      12.48730000       26       0.32843000       0.46686000       0.30932000     203.77633951
O        5.76394000       4.38483000       2.99190000       27      -0.36187000       0.19502000       0.92782000     211.28100083
O        5.54607000      12.49590000      12.48880000       28       0.05915000      -0.05009000       0.31434000     200.31432563
O        5.49671000       2.08749000       1.61061000       29       0.28343000       0.06758000       1.38827000     197.61929098
O       12.09090000       6.54742000       3.84796000       30      -1.12960000       0.29547000      -0.60797000     222.66488411
O       12.27980000       8.78172000       7.19886000       31      -0.50464000      -0.42509000       0.27007000     228.13856553
O        1.92921000       2.28056000       2.44518000       32       0.54626000       0.46467000      -0.69960000     204.89266395
O        6.55597000       2.35491000       6.66164000       33      -0.20068000      -0.18977000      -0.17222000     187.94158035
O        7.84061000      10.32660000       6.83045000       34      -0.24899000       0.23143000       0.47601000     216.35288969
O        8.31037000       8.65759000      10.50930000       35      -0.21207000      -0.04388000      -1.44737000     224.66961182
O       10.54680000       7.61817000      11.61360000       36      -0.80901000       0.95679000      -0.00642000     219.85343175
O        3.70445000      11.73730000       7.62358000       37      -1.74314000      -0.70103000       1.27480000     200.61004602
O        3.18668000       4.12431000       6.32741000       38      -0.18035000      -0.81675000      -0.48473000     206.08720588
O        4.54185000       6.74088000       2.52326000       39      -0.65336000      -0.39980000      -0.12400000     231.31460295
O        1.62060000      11.48280000      11.98410000       40       0.50666000      -0.09532000      -0.24277000     223.95520136
O       12.31900000      11.02670000       1.04688000       41       0.14662000      -0.94469000       1.24239000     212.59124699
O        7.52231000       8.56138000       4.76832000       42      -0.87274000       0.85247000       1.33588000     204.40441887
O        7.67401000       1.03772000       0.53638100       43      -0.26954000       0.69116000      -0.09505000     186.47985136
O        5.48828000       0.84455800       8.41421000       44       0.29057000       0.55907000      -0.87768000     185.06629181
O        7.29724000       5.32552000      10.95740000       45       0.19634000      -0.90356000      -1.55942000     224.04983005
O        9.48664000       0.13743500      10.47560000       46      -0.81991000       0.28125000      -0.57981000     226.01214263
O        1.80058000       0.08350500       9.06278000       47      -0.59984000      -0.87732000      -0.24421000     217.09954074
O        9.60339000       7.72299000       3.56830000       48      -1.72810000      -0.18014000       0.21990000     219.30748554
O        2.63281000       8.20846000       1.26696000       49       0.46790000       0.62027000       0.11392000     203.25569174
O        3.69750000       6.44226000      10.20840000       50       0.51450000       0.77120000      -0.78542000     217.39217336
O       10.71090000       0.51607200       4.95935000       51       0.50675000       0.36031000       0.30083000     190.25740007
O        4.02236000      10.31660000      12.29820000       52       0.52228000       0.41641000       0.23214000     221.86539342
O        7.73211000       9.32327000       2.41054000       53      -0.15154000       0.32436000      -0.08787000     204.79775906
O        0.43635200       1.93863000      10.03970000       54      -1.52056000       0.53479000       0.95417000     211.78443416
O       11.81570000      12.28670000      11.53220000       55      -0.82004000       0.16118000      -0.85320000     210.27053471
O       11.45350000      11.35100000       3.50122000       56       1.13683000      -1.42427000      -1.60884000     200.87761664
O        1.73495000       2.14284000       5.11029000       57       0.16247000       0.22220000       1.35892000     220.95302959
O       12.40020000       1.64936000       3.23882000       58       1.76499000      -0.06142000       0.22648000     190.36863556
O        3.09670000      10.76890000       9.96808000       59       0.30656000      -0.21588000      -1.23354000     220.20912812
O        1.51863000      10.30310000       7.91211000       60      -0.30543000       0.55766000       0.34523000     226.60648564
O       10.79740000       6.83221000       1.47831000       61      -0.14091000      -0.52771000      -0.74985000     205.63245811
O        5.25791000      12.16020000       5.91812000       62       1.64292000       1.14665000      -0.53923000     208.77487844
O       10.79060000       3.03479000       4.38004000       63       0.33380000      -0.73904000      -0.06687000     166.51199079
O       12.22280000       4.16925000       8.85396000       64       0.59598000       0.95911000       0.02890000     205.61831415
O        9.69770000      12.17530000       0.37933400       65      -0.71567000      -0.05727000       0.17759000     211.64741660
O       11.66740000       5.40207000      12.25170000       66       0.54879000      -2.25053000      -0.51550000     217.28190021
O       10.85800000       6.49834000       7.63103000       67      -1.06044000      -0.03388000      -0.09207000     194.02558721
O        7.85523000       3.19440000       1.99349000       68      -0.49249000      -0.51245000       0.11399000     184.66899362
O        0.20455800       7.75979000       0.24076100       69      -0.64687000      -0.63547000      -0.14347000     213.64937235
O        3.77240000       1.48198000       6.47575000       70      -0.34635000       1.32725000      -0.66231000     215.41018326
O       10.21430000      10.31250000      11.14700000       71      -0.59565000      -0.30779000       0.03849000     221.77214434
O       11.73210000       8.88440000       2.70944000       72       1.11629000       1.48929000      -0.06575000     216.23490299
O        1.88933000       5.64295000       7.88638000       73      -0.29078000      -0.02569000       0.17563000     198.24810202
O        2.74961000       2.29685000       0.02506700       74       0.98268000       0.04789000      -0.59156000     215.43137825
O        4.22206000       8.07927000       8.34680000       75      -0.38214000       0.94250000      -1.22906000     200.16220694
O        8.54950000       2.90152000       5.23108000       76      -1.00641000      -0.98423000       0.61220000     192.10974928
O        9.44788000       4.73189000       3.24984000       77      -0.97786000       0.77663000      -0.49641000     190.12989054
O        5.37276000       2.16720000      11.76370000       78      -0.43184000       0.27944000      -0.07355000     205.55721179
O       10.64680000       8.51183000       9.30631000       79       0.10277000       0.79364000      -1.58435000     224.50857074
O        9.64406000      12.28410000       7.82669000       80      -0.83432000      -0.12243000      -0.17813000     202.36802906
O        1.39315000       6.01786000       5.41153000       81       1.82032000       0.15969000       1.85982000     205.71018233
O        0.62943900       0.80133800       0.65216800       82       0.06960000      -0.83395000      -0.20074000     217.54093972
O       12.32680000      11.20790000       6.06468000       83       0.07981000      -0.14476000       0.13926000     215.47914978
O        6.07614000       5.39615000       0.71522500       84      -1.40926000      -0.38446000       0.39454000     198.03746945
O        3.02136000       8.52504000       3.63653000       85       0.88258000       0.05846000       1.03451000     213.37258514
O        7.07933000       6.80399000       2.80354000       86      -0.07734000      -0.98986000       0.07263000     217.71015647
O        5.89487000       6.06440000       8.80675000       87       1.11150000      -1.76735000      -0.69188000     209.02652888
O        8.70174000       7.59153000       6.73203000       88       1.06119000      -0.20836000       1.05008000     204.88059620
O        3.36373000      10.99310000       4.44247000       89       0.79844000       2.10311000      -0.50314000     219.85007052
O        5.58597000      10.63840000       1.60910000       90       0.46990000       0.17956000       0.58186000     197.53497798
O       11.15390000       3.05321000      11.19060000       91      -0.05667000       0.70596000       0.34360000     208.02139921
O        9.87008000       1.13447000       2.41454000       92      -0.90499000      -0.35930000       0.25219000     209.69867886
O       10.32950000       3.52881000       1.01507000       93       0.48908000      -0.20321000      -0.04472000     213.55381817
O        1.27246000      10.47610000       2.94951000       94       1.41917000      -0.47986000       1.08212000     213.76843011
O        6.29969000       8.05960000       6.91399000       95       0.25834000      -0.39088000       0.19500000     182.96554785
O        5.76485000       8.03178000      10.44280000       96       0.27630000       0.70504000       0.51581000     219.86827253
Si       0.56377900       9.96943000       6.67238000        1      -0.39212000      -0.34645000      -1.70357000     439.17063906
Si       3.81317000       2.69856000      11.49240000        2       0.01956000      -2.22638000       2.25909000     438.76130699
Si       4.69587000       8.14112000       6.75572000        3       0.01659000      -1.39148000       2.01406000     436.39659368
Si       0.70766800       5.42303000       8.99975000        4      -0.35760000      -0.66483000      -0.16387000     433.33220351
Si       9.06038000       4.22370000       1.75132000        5       1.13336000      -0.02141000       0.25649000     433.94081089
Si       2.65275000       5.68346000       6.45157000        6      -0.95819000      -0.24133000      -0.23145000     442.10205300
Si       2.66212000      10.38060000      11.43580000        7      -0.12615000      -0.84884000       1.29188000     437.32505001
Si      10.21630000      11.89410000      11.53930000        8       1.75922000      -0.98783000       1.38660000     442.05303835
Si      11.03550000       7.45981000       2.91859000        9       1.19109000      -0.74305000       1.11474000     442.16115166
Si      10.88580000       1.49685000       3.67715000       10      -0.77812000       1.72062000       0.90004000     430.44366324
Si       5.47692000      10.89310000       0.03132000       11      -1.09160000      -0.29116000      -0.50278000     434.19949823
Si       6.06243000       1.28479000       0.33559300       12      -0.66920000      -0.46162000      -2.08205000     425.85665424
Si       7.34647000       5.78779000      12.52070000       13      -0.46693000       1.83927000      -1.77626000     434.07187247
Si       7.43966000       1.76700000       5.45237000       14      -0.47138000       0.56828000      -1.53355000     443.69068509
Si       2.84798000       5.45276000      11.07310000       15      -1.01650000       0.59036000       0.97971000     434.21941475
Si       2.32339000       9.88463000       4.07540000       16      -2.72005000      -1.06792000       0.36906000     430.97315915
Si      11.64190000       7.77539000       8.30374000       17       0.35744000      -1.60384000      -0.28433000     439.21025696
Si       2.59927000       2.56174000       6.46933000       18      -0.98378000       1.35499000      -0.33401000     439.03314310
Si       1.78460000       1.63516000       9.33131000       19       1.89780000       0.97907000      -0.64543000     439.35982415
Si       4.56018000       0.28766900       7.08852000       20       1.26004000      -0.36248000       2.75715000     427.49919584
Si       1.01441000       2.59754000       3.74526000       21      -0.90854000      -1.04325000      -1.59035000     435.11978576
Si       1.39200000       2.19468000       0.87282200       22       0.95791000      -0.94947000       1.32500000     442.64880341
Si       6.64786000       2.04094000       8.23801000       23       0.14047000       0.62206000       1.47286000     432.00072098
Si       9.86404000       8.79333000      10.64510000       24       2.79217000       0.27872000       2.31779000     447.59263554
Si       9.54991000       4.01676000       4.72564000       25       1.37884000       0.72047000      -0.31809000     440.19245262
Si       6.98544000       8.55053000      11.36090000       26      -1.76083000      -0.25435000       0.83968000     437.87745568
Si       8.72269000      11.72990000       6.53474000       27       1.31902000      -2.39063000       1.58320000     435.09440728
Si       0.81655700       5.72583000       3.96561000       28      -0.91941000       1.11540000      -0.62877000     442.17888505
Si       8.75859000       0.27591600       1.48566000       29       1.74080000      -0.52617000      -0.21926000     445.85087792
Si       4.92025000       7.12418000       9.42301000       30      -1.30261000       1.66324000       1.22902000     435.14690004
Si      11.79520000       2.81471000       9.69278000       31      -0.07223000       0.44075000       0.93836000     433.82745669
Si      11.51250000       6.89764000       0.01649600       32      -0.60799000       1.87541000       0.52328000     439.85816586
Si       9.29638000       6.13404000       7.20936000       33       1.16380000       0.63590000      -2.10102000     448.36368453
Si       3.04224000       7.35689000       2.55893000       34      -0.52908000      -0.67512000       0.11317000     437.04736733
Si      11.11750000      11.60780000       5.01887000       35       0.94945000       1.42904000       0.94160000     423.42741703
Si       1.79606000       7.73499000       0.00522200       36      -0.94646000       3.28445000      -1.53442000     425.31213863
Si       7.97562000       8.02502000       3.38388000       37       1.67829000       0.10777000      -1.74869000     444.87839751
Si      11.51420000       3.80510000      12.61440000       38       0.69960000      -0.10935000      -0.61161000     440.26981197
Si       0.27974900      12.06870000      12.63100000       39      -0.22800000      -0.13337000       1.44517000     440.25614769
Si       7.05457000       5.05853000       9.32189000       40       0.90931000      -0.11453000      -0.56348000     449.49569026
Si       9.50372000       0.77998900       9.00197000       41       1.11052000      -0.18894000      -0.88563000     442.72276308
Si       4.82815000      10.88570000       5.08896000       42       0.44638000      -1.72395000       0.05492000     440.68323255
Si       6.41647000       2.93072000       2.69963000       43      -0.42781000      -0.60195000       0.30122000     431.19203525
Si       6.85427000      10.70000000       2.61569000       44      -0.05951000      -1.13797000       0.79396000     435.21236148
Si       2.45841000      11.37990000       8.62951000       45       1.83078000       0.13477000      -0.06927000     436.79316032
Si      12.40650000      10.34970000       2.58166000       46      -1.71441000       1.28957000      -2.11527000     439.11571509
Si       7.65332000       8.76317000       6.35377000       47      -0.40491000      -1.05348000       0.26689000     443.60202052
Si       5.85352000       5.83622000       2.27119000       48       0.19306000       0.68525000       0.28293000     438.64954265
144
Lattice="12.094622000000001 0.0 0.0 0.0 12.094622000000001 0.0 0.0 0.0 12.094622000000001" Properties=species:S:1:pos:R:3:indices:I:1:QM_forces:R:3:delta_iso:R:1 spacegroup="P 1" magres_units="_JSON {\"ms\": \"ppm\", \"efg\": \"au\"}" magresblock_calculation="_JSON {\"calc_code\": [[\"CASTEP\"]], \"calc_code_version\": [[\"23.1\"]], \"calc_code_hgversion\": [[\"cd65858e9\", \"Castep231_branch\", \"Tue\", \"May\", \"16\", \"11:24:16\", \"2023\", \"+0100\"]], \"calc_code_platform\": [[\"linux_x86_64_gfortran10-XT\"]], \"calc_name\": [[\"sio2\"]], \"calc_comment\": [[\"NMR\"]], \"calc_xcfunctional\": [[\"PBE\"]], \"calc_cutoffenergy\": [[\"900.00000000\", \"eV\"]], \"calc_pspot\": [[\"O\", \"2|1.1|17|20|23|20:21(qc=8)\"], [\"Si\", \"3|1.8|5|6|7|30:31:32\"]], \"calc_kpoint_mp_grid\": [[\"3\", \"3\", \"3\"]], \"calc_kpoint_mp_offset\": [[\"0.25000000\", \"0.25000000\", \"0.25000000\"]]}" QM_energy=-50549.614541 pbc="T T T"
O        1.72237000       9.07351000       5.65611000        1      -2.68430000       0.69840000       0.09570000     202.75872794
O       11.76240000       4.55466000       6.67731000        2       0.36085000      -0.11928000       1.14734000     169.85204974
O       11.52540000       9.36335000       4.64552000        3      -0.53999000       0.84921000      -0.44323000     195.66878932
O       10.85510000       1.81250000       8.46219000        4      -0.48512000      -0.39227000      -0.68822000     184.33619463
O        9.40061000       5.19608000       5.26699000        5      -0.75883000       0.89483000      -1.10798000     205.14829278
O        1.93942000      10.49140000       0.76541700        6       0.16675000      -0.28209000       0.18226000     198.05988044
O        6.37487000       2.76803000      11.57820000        7       0.24530000      -0.20047000       1.10888000     205.00240644
O        6.44119000       6.41233000       7.89905000        8      -0.55497000       0.27417000       1.41909000     193.99737780
O        3.18645000       4.46990000       4.63158000        9      -0.39385000      -1.26026000      -1.13739000     218.60019061
O        8.86326000       6.68430000       8.20494000       10       1.01019000      -1.46733000       0.16986000     157.56249787
O       11.65130000       7.26050000      10.93110000       11       1.69462000      -2.42174000      -0.55357000     182.19413085
O       10.41980000       0.29543900       6.12491000       12       0.30368000       0.29026000      -0.61787000     182.17808474
O        6.53976000       9.93644000       5.42979000       13      -2.29278000      -0.16227000      -2.99351000     228.80975365
O        5.56428000       9.13056000       3.05711000       14      -0.08481000      -0.80069000      -1.11481000     209.18196002
O        0.44820000       6.21042000       8.62090000       15      -0.17266000      -0.09537000       0.38136000     221.55751730
O        9.57673000       9.26281000       2.88345000       16      -1.54540000      -0.87857000       1.33493000     204.80354026
O        3.46323000      12.01240000       2.30362000       17      -0.85572000      -0.23097000      -0.50998000     217.21135606
O        7.17700000       9.79429000      11.42580000       18      -0.12295000       0.03019000      -0.00743000     211.10730714
O        7.41795000       7.60445000      10.15520000       19      -0.56439000      -0.89918000      -1.26942000     209.38293429
O        9.45995000       4.21572000       7.73153000       20      -0.94671000       0.18857000       1.57174000     193.55617596
O        7.04604000       6.26487000       5.29527000       21      -0.95546000      -0.33746000       0.21601000     209.10566711
O        4.49235000       0.75124000       8.70392000       22      -0.20659000      -0.62811000       0.39314000     194.03437460
O        3.41031000       7.66563000       2.07915000       23      -0.17166000      -0.13452000      -0.48678000     211.11039446
O        4.66724000       6.36490000      11.46420000       24      -0.90405000       0.08576000      -1.77112000     222.52448263
O        3.55439000       2.96587000       7.61717000       25      -0.56083000       0.10213000      -1.18225000     202.33854977
O        1.89694000       2.04285000       4.71779000       26      -0.77502000      -0.52338000       0.52688000     205.31574944
O        1.38053000       6.59200000       3.36375000       27      -0.23074000      -0.65380000       1.97137000     192.54936176
O        5.29154000       1.63451000       1.57887000       28      -0.31442000      -0.87848000      -0.42075000     195.62977843
O       10.07460000       3.12921000      11.40840000       29      -0.43635000      -0.53146000       0.20356000     224.38957746
O        2.84008000       3.32582000      10.04380000       30      -0.93497000      -0.57247000       0.80979000     204.69977261
O       10.33480000       2.79766000       5.90206000       31      -0.26431000      -0.70679000       0.16352000     187.54235620
O        5.27568000      11.54890000      10.92820000       32       1.43587000      -0.43164000       1.59049000     228.13398019
O        9.89794000       5.42534000      10.13250000       33      -0.58099000      -0.27172000      -0.32329000     182.65234849
O        3.67961000       7.91332000       9.56230000       34      -0.03220000       1.53704000      -0.10414000     222.42955865
O       11.88640000       3.93145000       1.57998000       35       0.84079000      -0.05055000      -0.22475000     175.91097703
O        1.81041000      10.03260000       3.26921000       36      -1.20071000       1.11582000       0.26840000     172.22503739
O        7.27424000       8.89704000       7.83503000       37       0.36192000      -0.19754000      -0.55693000     219.54915902
O        8.85022000      10.30400000       6.14629000       38       0.45072000      -0.56607000      -0.19421000     196.42760391
O        8.34164000       6.10155000       2.84207000       39      -0.22246000       0.18008000      -0.32676000     223.53529620
O       12.05450000       4.85892000      11.15620000       40       0.94972000      -0.30056000      -0.44393000     173.76477273
O       10.62200000      11.77410000       3.16777000       41       0.17773000      -0.74979000       0.46070000     189.51834022
O        4.65708000       5.47058000       6.42529000       42       1.32639000       0.16908000      -0.33478000     197.68860257
O        9.77636000       5.46177000       0.68298300       43       0.65212000      -0.54245000      -0.40801000     208.14339281
O       12.08360000       6.79237000       5.83413000       44       0.67074000      -0.19897000      -0.90057000     161.12744277
O        0.88372700       0.29334900       2.11286000       45       0.61913000       0.20321000       0.18634000     210.00927036
O        7.22773000       3.30786000       2.04225000       46      -0.30393000      -0.34594000       0.11396000     189.47659794
O       11.17870000       8.97661000       9.08790000       47      -0.01118000       0.77688000      -3.52022000     201.27447458
O        0.73477400       1.80861000       9.98703000       48       0.19312000       0.23145000       0.02098000     219.86444949
O       11.51900000       9.92154000       1.51736000       49      -0.02767000       0.58178000       0.37325000     200.34972536
O        6.56424000      11.52540000       1.16619000       50       0.72504000       0.31921000       0.05200000     192.95771492
O        2.15071000       5.62966000       6.75863000       51      -0.87782000      -0.18423000       0.29342000     196.62184380
O        0.49871200       1.56481000       6.69425000       52       0.62164000       0.14834000       0.90373000     205.35497104
O        3.01106000       0.54324800       6.55427000       53      -0.46176000       0.11300000      -0.19709000     212.99373930
O        1.03128000      11.60930000       5.21085000       54      -0.60766000      -1.65240000      -1.03078000     209.08319352
O        9.11423000       7.73434000       4.84681000       55      -1.10864000       0.11092000       1.15115000     194.86763570
O       12.19440000      11.54440000       9.01170000       56       0.59554000      -1.24090000      -0.42460000     207.42245614
O        8.45296000       1.12100000       0.14659000       57       0.86935000       0.99154000      -1.80874000     187.75569928
O        6.79523000       4.00441000       6.66972000       58       0.06265000      -0.78991000      -0.35278000     198.35206926
O       11.58060000       2.01899000       3.45152000       59       0.19824000       1.83245000       0.66028000     188.89937769
O        5.06434000       4.38255000       1.02639000       60      -1.03814000      -2.47728000       1.04639000     204.35654251
O       11.73580000       4.66372000       4.03602000       61       0.02826000       0.30338000      -0.03243000     184.65560639
O        1.53532000       9.24830000       8.37298000       62      -1.34737000       0.35304000       0.29540000     213.00702568
O        5.43294000       1.69904000       6.30247000       63      -1.26289000      -0.50591000       0.16350000     207.06561141
O        3.77381000       8.97242000       7.23673000       64       0.22054000      -0.06520000       1.85369000     207.65157573
O        7.37634000       1.43761000       9.43643000       65      -0.19328000       0.37722000       0.91924000     205.84622699
O        1.95597000       5.46704000       1.13918000       66       0.85000000       1.65961000      -0.37914000     209.88848327
O        7.94000000       1.60602000       7.00441000       67      -0.84245000       0.59118000      -1.40750000     178.80310539
O       11.40290000      10.18490000       7.01726000       68      -1.14051000       0.53306000      -1.29888000     179.09308741
O        1.01070000       7.97006000       1.16331000       69      -0.00725000      -0.36890000      -0.57339000     213.55391870
O        8.34619000       7.67676000       0.57446800       70       0.03710000       0.83880000       1.45251000     201.24594256